
#(C) 2017 by FIZ Karlsruhe - Leibniz Institute for Information Infrastructure.  All rights reserved.
data_163559-ICSD
_database_code_ICSD 163559
_audit_creation_date 2009-08-01
_audit_update_record 2014-02-01
_chemical_name_systematic 'Iron selenide'
_chemical_formula_structural 'Fe Se'
_chemical_formula_sum 'Fe1 Se1'
_chemical_name_structure_type FeSe
_exptl_crystal_density_diffrn 5.74
_cell_measurement_temperature 190.
_cell_measurement_pressure 23000.
_publ_section_title
'Pressure-induced effects on the structure of the Fe Se superconductor'
loop_
_citation_id
_citation_journal_full
_citation_year
_citation_journal_volume
_citation_page_first
_citation_page_last
_citation_journal_id_ASTM
primary 'Solid State Communications' 2009 149 707 710 SSCOA4
loop_
_publ_author_name
'Millican, J.N.'
'Phelan, D.'
'Thomas, E.L.'
'Leao, J.B.'
'Carpenter, E.'
_cell_length_a 3.7724
_cell_length_b 3.7724
_cell_length_c 5.5217
_cell_angle_alpha 90.
_cell_angle_beta 90.
_cell_angle_gamma 90.
_cell_formula_units_Z 2
_symmetry_space_group_name_H-M 'P 4/n m m S'
_symmetry_Int_Tables_number 129
_refine_ls_R_factor_all 0.0648
loop_
_symmetry_equiv_pos_site_id
_symmetry_equiv_pos_as_xyz
1 '-y+1/2, -x+1/2, z'
2 'y+1/2, x+1/2, z'
3 '-y, -x, -z'
4 'y, x, -z'
5 'y+1/2, -x+1/2, z'
6 '-y+1/2, x+1/2, z'
7 'y, -x, -z'
8 '-y, x, -z'
9 'x+1/2, -y+1/2, -z'
10 '-x+1/2, y+1/2, -z'
11 'x, -y, z'
12 '-x, y, z'
13 '-x+1/2, -y+1/2, -z'
14 'x+1/2, y+1/2, -z'
15 '-x, -y, z'
16 'x, y, z'
loop_
_atom_type_symbol
_atom_type_oxidation_number
Fe2+ 2
Se2- -2
loop_
_atom_site_label
_atom_site_type_symbol
_atom_site_symmetry_multiplicity
_atom_site_Wyckoff_symbol
_atom_site_fract_x
_atom_site_fract_y
_atom_site_fract_z
_atom_site_B_iso_or_equiv
_atom_site_occupancy
_atom_site_attached_hydrogens
Fe1 Fe2+ 2 a 0 0 0 0.0000 1. 0
Se1 Se2- 2 c 0 0.5 0.2673(4) 0.0098(7) 1. 0
#End of TTdata_163559-ICSD
